<VTKFile type="PolyData" version="1.0" byte_order="LittleEndian" header_type="UInt64">
  <PolyData>
    <Piece NumberOfPoints="40401" NumberOfVerts="0" NumberOfLines="0" NumberOfStrips="0" NumberOfPolys="40000">
      <PointData>
        <DataArray type="Float32" Name="zvalue" NumberOfComponents="1" format="ascii" RangeMin="0.137011360364" RangeMax="20.0">
          20.0 20.0 20.0 20.0 20.0 20.0
          20.0 20.0 20.0 20.0 20.0 20.0
          20.0 20.0 20.0 20.0 20.0 20.0
          20.0 20.0 20.0 20.0 20.0 20.0
          20.0 20.0 20.0 19.7933195062 19.1351174182 18.4956990515
          17.8748020056 17.2737869061 16.6891697067 16.1202401886 15.5696199677 15.0394285916
          14.5317468695 14.0365748883 13.5486756085 13.0685260995 12.5720806427 12.0234201974
          11.4573813474 10.8802156604 10.3248789621 9.84228739258 9.51376613739 9.43731514221
          9.64410668762 10.0684888501 10.6234906412 11.2391615717 11.833201889 12.3263372562
          12.5845479474 12.6278877625 12.5753684552 12.5618802579 12.7692748135 13.2125233292
          13.5716292215 13.8643780838 14.0798737228 14.4031544434 14.7591017404 14.944306557
          15.189703945 15.4553956842 15.7548874435 16.1252953998 16.5448054327 17.0550483484
          17.5778645715 17.8008217847 18.0514749304 18.2228307507 18.3097903357 18.3431529822
          18.551055343 18.7117657208 18.7668520917 18.6626888409 18.4905825525 18.3156851111
          18.2341456653 18.1540426154 18.0280243671 17.7024933044 17.2184091882 16.708375195
          16.2278448877 15.9888002271 15.7357876837 15.4596426807 15.2000951813 14.9439972751
          14.5636121317 14.1450989548 13.6687746579 13.2478687067 13.3550121689 13.5773351617
          13.9242712982 14.1800090332 14.2033411426 14.059246431 13.7507465335 13.3239481543
          12.9639123224 12.65687711 12.1746740839 11.5442988849 11.151961944 10.6641809769
          10.0775154449 9.5158251355 9.05816924988 8.67279679901 8.36395989227 8.14992094971
          8.26914236694 8.84644355377 9.63468085571 10.357485209 10.6938137897 10.7917303973
          10.8175500574 10.7170683325 10.4301688235 9.85573097565 9.25413131775 8.56026521027
          7.78829259781 7.24113532745 6.9499849353 6.98890142426 7.1770714035 7.32645960922
          7.62136820892 7.97886976898 8.03333416245 7.67295619263 7.37937824814 7.04347121567
          6.91595582047 6.90241850204 6.94979876602 7.03024242462 7.23713254242 7.43230845322
          7.55708475586 7.61660369629 7.6279674234 7.64024215195 7.68381267807 7.74940703873
          7.84327370377 7.90603289673 7.93439089935 7.95349672455 7.98971541031 8.08157599503
          8.20847029327 8.3300892984 8.64483460205 9.06328449799 9.31886033478 9.31475258606
          9.40327259583 9.5910017569 9.60969911682 9.64872011261 9.75917616425 9.86962603394
          9.98970546112 10.1901297537 10.475103465 10.7998002292 11.1561082635 11.4796303961
          11.8711220816 12.4301738962 13.1732197678 14.3209039093 15.6061862796 17.3318334662
          19.7793114771 20.0 20.0 20.0 20.0 20.0
          20.0 20.0 20.0 20.0 20.0 20.0
          20.0 20.0 20.0 20.0 20.0 20.0
          20.0 20.0 20.0 20.0 20.0 20.0
          20.0 20.0 20.0 20.0 20.0 20.0
          20.0 20.0 20.0 20.0 20.0 20.0
          20.0 20.0 20.0 20.0 20.0 20.0
          19.6801507922 19.0483480066 18.4300861401 17.8288260107 17.2437639722 16.6736411325
          16.1200155933 15.5832472308 15.0637031223 14.5709484064 14.0841128955 13.6036655347
          13.1265112231 12.6460346539 12.1439969275 11.5924138834 11.0317704425 10.4765003497
          9.94018286926 9.4786437793 9.17446692688 9.11112245178 9.34289071259 9.77363434937
          10.3399412204 10.9392913916 11.4763742255 11.8163916922 11.9660553333 11.993856264
          11.9744044684 12.1171265656 12.568840174 13.1003561859 13.4901561346 13.7536999579
          14.0352740216 14.3040141068 14.5134197946 14.7140382346 15.0053585352 15.3294464923
          15.6893613141 16.0854574365 16.5237616797 17.0818139478 17.455118999 17.6189058746
          17.7750885431 17.8319163721 17.7932213916 17.9210910925 18.0921413092 18.2163527307
          18.2085904211 18.1190678308 17.9854573035 17.9033420642 17.8464250311 17.7486752515
          17.5487894244 17.1766561365 16.7313780423 16.3677263895 16.1216538211 15.8048167938
          15.4418904474 15.128679256 14.8446130594 14.5104366547 14.0546705328 13.5392498785
          13.1669214755 13.1003944141 13.3676686755 13.6604904291 13.9831919681 14.1669738129
          14.0354462109 13.6708839621 13.2669560327 12.8580691144 12.4940956033 12.003956709
          11.5047415619 11.1040824619 10.6013846786 10.1014644617 9.4741140448 8.94283474213
          8.41953323975 7.95082418961 7.62505527985 7.75112795319 8.06239064819 8.84283270172
          9.67755365051 10.2717702042 10.529985975 10.5683651941 10.3887355981 10.0128472253
          9.47362606995 8.83939189606 8.08197651459 7.31037093155 6.73691873993 6.46471434586
          6.43838043732 6.54468649506 6.80392994995 6.94607377701 7.31011360748 7.63516653717
          7.62176866592 7.3223416127 7.04397653915 6.89634404037 6.85278274063 6.88281006485
          6.94390357513 7.10779163361 7.3008670224 7.41048745148 7.51667615341 7.56657425568
          7.53456177963 7.52763719574 7.5865557457 7.68442741913 7.74952616455 7.8003929213
          7.8757511647 7.97181792938 8.13030306152 8.31554363434 8.50560525452 8.80713330841
          9.21970296844 9.47151940369 9.69104508667 9.78466574402 9.74065768982 9.68938162018
          9.71140703308 9.84512337067 9.85844709747 9.90997574646 10.0116251056 10.091120228
          10.2626548456 10.4173541412 10.8131044415 11.3593843362 12.0215612878 12.9011508356
          14.1713788739 15.5619650262 17.4526960309 19.7276723615 20.0 20.0
          20.0 20.0 20.0 20.0 20.0 20.0
          20.0 20.0 20.0 20.0 20.0 20.0
          20.0 20.0 20.0 20.0 20.0 20.0
          20.0 20.0 20.0 20.0 20.0 20.0
          20.0 20.0 20.0 20.0 20.0 20.0
          20.0 20.0 20.0 20.0 20.0 20.0
          20.0 20.0 20.0 19.5717207678 18.9693180017 18.3787372229
          17.7960445453 17.2294223419 16.6768346024 16.1347455524 15.6104714618 15.1034671024
          14.6151251587 14.1296462088 13.6602712225 13.1979805786 12.7341439496 12.2593454172
          11.751567023 11.2149365933 10.6702613031 10.1312377179 9.61884533813 9.1830471991
          8.87864142426 8.82665871765 9.05704233551 9.50754284729 10.0693575342 10.6258041718
          11.0616371542 11.3225830588 11.4359097687 11.4389014093 11.5572176572 11.9504816998
          12.5845101984 13.0963300189 13.4027582098 13.6377820355 13.8875998712 14.0793614038
          14.2634137018 14.5697509253 14.9273770306 15.2969370383 15.6710139505 16.0875597949
          16.5971735602 17.1388815265 17.3553727246 17.4478593713 17.4230388916 17.3729699719
          17.3840758337 17.5446319507 17.791938772 17.8621118909 17.7902704968 17.700705069
          17.6720273938 17.6245858069 17.5208819189 17.3468566968 17.1215596637 16.7425462943
          16.4764423343 16.2404963257 15.8878008966 15.5359589816 15.1948536768 14.8517958542
          14.5130174564 13.9947965332 13.4814342889 13.1245037445 12.8908734863 13.1566431482
          13.5142156055 13.8019477124 14.1128278363 14.1219204831 13.7065281735 13.1981974384
          12.7841562482 12.3912190878 11.9813693951 11.6798491974 11.1764925519 10.5514575598
          10.0399777167 9.49729886108 8.86302987152 8.25353096298 7.68457011078 7.35426927521
          7.41170782257 7.53394331894 8.05569155533 8.85947284851 9.58718101898 10.0755854816
          10.3083547702 10.2255796942 9.86279007629 9.30137877655 8.63715963165 7.8639220047
          7.05812885498 6.47274483063 6.19271568359 6.14036444153 6.20481503418 6.31269780243
          6.50138906723 6.66645057755 6.99515139526 7.24970674042 7.25479244629 7.01108814423
          6.92634714844 6.87632977905 6.85117197861 6.88655823502 7.01110497894 7.16370583893
          7.28042800766 7.4291470108 7.50274356827 7.50252809708 7.44897464508 7.43337469238
          7.48872302338 7.54673875031 7.61621215561 7.74361923218 7.93509614899 8.18698789886
          8.40837050446 8.64392879669 9.0046515979 9.24098575012 9.48092694519 9.72388942993
          9.87908038788 9.85252747284 9.73010842255 9.71229096252 9.75374608124 9.74445588318
          9.80257427063 9.8461269342 9.83970508301 9.82788794861 10.1319630658 10.6953959573
          11.3832252853 12.1486967426 13.1346402228 14.3918629956 15.7695934747 17.6007422327
          19.6653973499 20.0 20.0 20.0 20.0 20.0
          20.0 20.0 20.0 20.0 20.0 20.0
          20.0 20.0 20.0 20.0 20.0 20.0
          20.0 20.0 20.0 20.0 20.0 20.0
          20.0 20.0 20.0 20.0 20.0 20.0
          20.0 20.0 20.0 20.0 20.0 20.0
          20.0 20.0 20.0 20.0 20.0 20.0
          19.4711036536 18.8873105664 18.3209028699 17.7617758264 17.2095872214 16.6749451047
          16.1509030981 15.6410425388 15.1491775739 14.6699397482 14.1962340704 13.7404289307
          13.2959761023 12.8521531653 12.3941062396 11.9111426971 11.4198170486 10.8981386545
          10.3791883612 9.86525500031 9.38489660339 8.96171502167 8.64743429016 8.5883054834
          8.79560728241 9.23200965118 9.75476782715 10.2601343878 10.6456399515 10.8513701642
          10.9451762726 11.0928451181 11.4701533035 12.1191967664 12.6577737589 12.9940842929
          13.2254647128 13.4655930786 13.6567610104 13.8550630939 14.1387425583 14.5067674164
          14.8938691595 15.2780403976 15.6590928638 16.1519605084 16.7001557883 17.1555838269
          17.2650080939 17.2162765051 17.0942576892 17.0977433746 17.3128032581 17.5580313641
          17.607638183 17.5385029791 17.4705834186 17.4548283154 17.4145078033 17.3269400464
          17.1796102325 16.9987582224 16.7459215231 16.5676399246 16.3839735968 16.0409610281
          15.7155264667 15.3335956647 14.9487605499 14.5139628339 13.9525077933 13.4875497702
          13.11234664 12.9352796613 13.0124650195 13.346488186 13.7679409003 14.0368286185
          13.9899705618 13.7056223486 13.3609195676 12.924600625 12.4965480023 12.1596291275
          11.9318918494 11.4193124933 10.5919869962 9.96859481262 9.43621949036 8.80662279602
          8.04748938934 7.50846864853 7.13957481293 7.29410522461 7.37674038803 7.51615372528
          8.06460286102 8.87795513092 9.46776070343 9.83369509644 9.93984403076 9.69845072784
          9.17430958771 8.53617602844 7.85224064682 7.09749788208 6.48406656784 6.10331420135
          5.99201071503 6.03834972046 6.08010579376 6.19133693039 6.32843303558 6.50576115158
          6.71162396515 6.85350365952 6.96541028458 6.86390864151 6.91773530365 6.90729806671
          6.88232405762 6.95311218399 7.02744168701 7.15763575577 7.34145453842 7.45308557388
          7.47272643707 7.4317461264 7.40653093964 7.40363402237 7.41813038452 7.48971175201
          7.62880907089 7.83959741714 8.17893399872 8.50224394592 8.76045628448 9.07791311981
          9.31625033539 9.51126879822 9.65285620605 9.66443715363 9.7158456427 9.6621862677
          9.55603734497 9.45325712341 9.47476125 9.62106025391 9.62045347656 9.6002124939
          9.74680241394 10.1364293872 10.7414647485 11.4662362994 12.2775014523 13.3541464771
          14.5020559064 15.8042990527 17.3846453363 19.0041131549 20.0 20.0
          20.0 20.0 20.0 20.0 20.0 20.0
          20.0 20.0 20.0 20.0 20.0 20.0
          20.0 20.0 20.0 20.0 20.0 20.0
          20.0 20.0 20.0 20.0 20.0 20.0
          20.0 20.0 20.0 20.0 20.0 20.0
          20.0 20.0 20.0 20.0 20.0 20.0
          20.0 20.0 19.95736521 19.3716969226 18.8026548792 18.2528161096
          17.720670968 17.1969793884 16.679675347 16.1735235809 15.6796623685 15.2020153082
          14.7337666531 14.2734382886 13.8334634763 13.4064167245 12.9847849149 12.5437815134
          12.0904965115 11.6240202179 11.1404556326 10.6443452884 10.1525547607 9.68008244934
          9.22825689514 8.8134452005 8.50873588623 8.40925949921 8.58353341614 8.99470181
          9.48179763733 9.93834301544 10.2487148404 10.463170014 10.6839883093 11.1062978867
          11.6892318536 12.2233360379 12.5447565924 12.7704066943 13.0133475739 13.2427951242
          13.4823472217 13.7697882806 14.0920089911 14.4697238278 14.877647627 15.2760839136
          15.7097064337 16.2614166434 16.9751273395 17.2978552032 17.3609470386 17.2357170807
          16.9892320062 17.141288219 17.3983911938 17.3913196094 17.370022511 17.3274920758
          17.2781854401 17.2485358801 17.2069689197 17.0968526331 16.9524214597 16.7754304269
          16.7998415631 16.6829420313 16.4625250751 16.1500756781 15.7504466949 15.2570974896
          14.7274555103 14.1052469452 13.6440120285 13.3265821439 13.0900275562 13.0201376532
          13.3312965167 13.6789617657 14.0640663104 14.0698376416 13.8230201193 13.4885250739
          13.0761107397 12.7376873264 12.4676880414 12.2696416412 11.6708089777 10.7901215146
          9.98110586121 9.34781121613 8.73164310852 7.95983079498 7.47114470337 7.11625434174
          7.03327773224 7.29759365509 7.37946798676 7.61899894638 8.22397797867 8.87269191162
          9.26777655701 9.4287694751 9.42935878143 9.01313311127 8.464131651 7.80172348618
          7.10501593994 6.50973842422 6.11656807144 5.95668689331 5.93415824493 5.99505272171
          6.04201363953 6.21147399323 6.37709203766 6.5175798848 6.53602506073 6.62123679779
          6.81627597427 6.8540477832 6.99037052719 6.98426454361 6.96352228149 6.92565959564
          7.04113304443 7.27417660049 7.40754686127 7.43936059341 7.38423571396 7.36786791962
          7.35833265839 7.32391155121 7.36376115326 7.49231394409 7.715058004 8.11639180756
          8.54551019379 8.79782522583 9.05752334412 9.1746501767 9.28051773102 9.31922903748
          9.36758016083 9.35841366669 9.2284525647 9.09512183136 9.09854252899 9.1100430307
          9.18456512634 9.16696733154 9.18122683685 9.45287941833 9.92401773407 10.6671730096
          11.3911785641 12.3428455615 13.3426747116 14.1937546295 15.4134267407 16.701611842
          17.8435875031 18.9363057343 20.0 20.0 20.0 20.0
          20.0 20.0 20.0 20.0 20.0 20.0
          20.0 20.0 20.0 20.0 20.0 20.0
          20.0 20.0 20.0 20.0 20.0 20.0
          20.0 20.0 20.0 20.0 20.0 20.0
          20.0 20.0 20.0 20.0 20.0 20.0
          20.0 20.0 20.0 20.0 20.0 19.8336214911
          19.2710021838 18.7236466949 18.189789082 17.6705047644 17.1692874896 16.6801343747
          16.1951131497 15.7196964032 15.2625867996 14.8049551587 14.3590059027 13.9279855499
          13.51333242 13.0993205331 12.6744566058 12.2425408621 11.8051094012 11.3533506885
          10.8914027252 10.4270377631 9.98011291656 9.54187285645 9.11781817719 8.7340154776
          8.45191323151 8.34683907349 8.50236804138 8.85121959137 9.28630682312 9.66327952972
          9.97440352356 10.2795075745 10.7363276373 11.2799628827 11.7412061502 12.1149562457
          12.3800093329 12.6140431802 12.8389041592 13.0990178195 13.3871505853 13.7074113599
          14.0552151468 14.5074650491 14.9680980301 15.4548404349 16.039184075 16.8407810999
          17.3670037219 17.5017854181 17.3778317517 17.0536971265 17.0983334351 17.216349621
          17.2207850476 17.20385 17.158627312 17.1208882556 17.0902508582 17.0733163153
          17.0293514307 16.9629742017 16.8414856757 17.0352489795 16.9859172479 16.8712665012
          16.6349224466 16.2879211578 15.8680031418 15.3203516653 14.6942866364 14.2617613815
          13.9459264725 13.6621323434 13.4772232477 13.5631698386 13.8729679181 14.214930368
          14.2396920117 13.9235382587 13.5219988135 13.2143295151 12.9869273553 12.7910180573
          12.6084766422 11.8838001974 11.0769369257 10.1665104922 9.38100270081 8.73594481628
          8.03368646957 7.45195027832 7.06837396118 6.9322411142 7.11086132339 7.28397409454
          7.44077484039 7.8288797403 8.42122156311 8.85509200043 9.02754641876 9.05658316742
          8.91316059418 8.36852007294 7.74672522095 7.15658120941 6.5301019223 6.14662327148
          5.95527487579 5.96149438095 5.98077340012 5.97873934174 6.05546275833 6.31842824783
          6.48251320618 6.50290046082 6.46227229874 6.61885507797 6.88949273544 7.11757179794
          7.11673713837 7.04933094986 6.88380659515 6.98210325226 7.22178746674 7.34832900894
          7.37068362686 7.33005418427 7.31103635147 7.29261827545 7.23671980438 7.21838873154
          7.31590049789 7.51270641602 7.89650219101 8.42015967041 8.67406395935 8.72565071594
          8.77985124939 8.85045493195 8.86004377502 8.85439571198 8.7616693692 8.61248441284
          8.52001293945 8.48655934662 8.4990115036 8.50474716034 8.50695007324 8.74685709869
          9.12851755859 9.68504178284 10.4586289856 11.3276121967 12.1337792538 12.933136705
          13.7226800409 14.6110853687 15.5481796832 16.5756495428 18.3070278943 19.9754959375
          20.0 20.0 20.0 20.0 20.0 20.0
          20.0 20.0 20.0 20.0 20.0 20.0
          20.0 20.0 20.0 20.0 20.0 20.0
          20.0 20.0 20.0 20.0 20.0 20.0
          20.0 20.0 20.0 20.0 20.0 20.0
          20.0 20.0 20.0 20.0 20.0 20.0
          20.0 20.0 19.7116311224 19.1677830341 18.637704931 18.1224224109
          17.6229694531 17.1373465808 16.6647574701 16.2064796066 15.7547686081 15.3112644992
          14.8651217609 14.4316037653 14.0094652887 13.5992437665 13.1799437143 12.760797793
          12.3475150848 11.938304408 11.5240875601 11.1037884076 10.6916446851 10.2723668307
          9.85491049072 9.44965230652 9.05352307281 8.70118545837 8.42057673325 8.32713526978
          8.46118753235 8.76779420258 9.14896470947 9.48094289001 9.82661527771 10.3466987979
          10.8902536823 11.3431441351 11.7414930646 12.0509794934 12.3046889691 12.5398690503
          12.7604390448 13.0384443033 13.3693315106 13.690958244 14.0973880789 14.6583782394
          15.2431625751 15.9633462845 16.7499022296 17.3722404767 17.656281507 17.5526026654
          17.256772337 17.2390192542 17.1583291223 17.0794436041 17.0655621582 17.0324608099
          16.965989762 16.9312820911 16.9239235437 16.9241519574 16.927555163 16.9107261859
          17.1124623401 17.1492878351 17.121603114 16.9725227802 16.6999376093 16.3566012323
          15.8864855688 15.4033512225 14.99786573 14.6299928363 14.3288770575 14.0672649051
          13.9808515875 14.2589082904 14.3885922943 14.2811241772 14.0242053693 13.7157920755
          13.4847184894 13.3097142575 13.1575320233 12.9474923181 12.1004797906 11.3776879446
          10.4299148315 9.5294984259 8.74874043121 8.07340715591 7.49650464508 7.0686403952
          6.88627262939 6.96376730972 7.22467268555 7.37736739746 7.61264784302 8.03322645966
          8.50418076202 8.79895671356 8.79695093628 8.68406257843 8.4227699231 7.75599604477
          7.12488499054 6.61474169952 6.14209664581 5.92860212265 5.96731015259 6.06536020111
          6.06645227081 6.02032425934 6.22712594284 6.44391995773 6.46712151825 6.43789252441
          6.39979598068 6.82192387665 7.09619421783 7.25175976044 7.10490937515 6.86913618301
          6.94682593613 7.14866807022 7.27672830109 7.28748988052 7.25701052521 7.24566386124
          7.22417681641 7.15308592133 7.08408126923 7.14837877319 7.34137640167 7.67199389496
          8.10480992416 8.38405201385 8.37836559662 8.3645102597 8.3665206781 8.31372416626
          8.20519482727 8.14332636597 8.09226198761 8.06884251099 8.01589364349 7.95530023087
          7.97969756973 8.13337267593 8.43060946014 8.878734599 9.43327943512 10.1384346466
          10.8916988943 11.6029027802 12.296372135 12.9522559195 13.6427210345 14.6802322217
          16.1641571191 17.9318621698 19.4742651611 20.0 20.0 20.0
          20.0 20.0 20.0 20.0 20.0 20.0
          20.0 20.0 20.0 20.0 20.0 20.0
          20.0 20.0 20.0 20.0 20.0 20.0
          20.0 20.0 20.0 20.0 20.0 20.0
          20.0 20.0 20.0 20.0 20.0 20.0
          20.0 20.0 20.0 20.0 20.0 19.5863285425
          19.062711853 18.5518000287 18.0538144647 17.5705438574 17.1045264752 16.6507069894
          16.2064113821 15.767943465 15.3372965356 14.9065259357 14.4826561325 14.0645304834
          13.6549849625 13.2477650684 12.8395241501 12.4375304364 12.0504401706 11.6674001968
          11.2844971918 10.918268721 10.5494312897 10.159043219 9.77029185486 9.38730834656
          9.0058042569 8.6475206543 8.37933907944 8.27797019653 8.3859845079 8.62192344727
          8.93094795227 9.33213898376 9.88601174347 10.4850694247 10.9996982089 11.4455132281
          11.7724969888 12.0428881534 12.2948672607 12.5422414655 12.8233924579 13.1302196619
          13.4699442035 13.8354120068 14.3357088574 15.1415683319 15.9972275446 16.788645824
          17.3964645551 17.7759636877 17.7608986877 17.5782764294 17.3622147107 17.2563405267
          17.1609075403 16.9741227948 16.9009736493 16.8488026306 16.7821806372 16.7671080353
          16.7820906516 16.7943192041 16.9186447171 17.1069470856 17.1894440002 17.1971942761
          17.155428623 16.9810143964 16.7132052243 16.3536200488 15.971692276 15.6038423676
          15.2491008423 14.9315141351 14.618682803 14.4761371429 14.519226987 14.5118595438
          14.3646665045 14.1790117407 13.9981289569 13.7985197757 13.6447764154 13.5132181271
          13.2062366336 12.414203446 11.6374397235 10.8373953433 9.83967879578 8.83121437073
          8.00113969833 7.45107939713 7.04989832779 6.87629810913 6.88814879791 7.16170857941
          7.4382405162 7.61537320953 7.85143270493 8.2165345433 8.55140629822 8.68410091248
          8.56583435486 8.30849503357 7.90170603867 7.25619854996 6.66117814194 6.15748014954
          5.86289854523 5.89675385956 6.05580989716 6.18421600815 6.12235953217 6.09634083008
          6.40484791138 6.43839081924 6.50746054901 6.44555202179 6.62276890717 7.17843469452
          7.36972695786 7.19026074005 6.84245132309 6.86897056793 7.07131084579 7.19158416107
          7.19324743546 7.19974770996 7.19410520599 7.18648522934 7.1115946962 6.98899935211
          6.98644082977 7.1493095874 7.36365875595 7.62944026138 7.83426871582 7.82349844849
          7.75853162384 7.74395241058 7.7132590567 7.66003352661 7.65142747696 7.6510172049
          7.61821386261 7.61852013199 7.65054335922 7.73110327759 7.94122151337 8.27224706512
          8.70672113647 9.20338962158 9.78692140503 10.457815434 11.1263558347 11.7497952911
          12.4409266547 13.2407870599 14.3478542575 15.9421622876 17.4620093323 18.8287194879
          19.7731829797 20.0 20.0 20.0 20.0 20.0
          20.0 20.0 20.0 20.0 20.0 20.0
          20.0 20.0 20.0 20.0 20.0 20.0
          20.0 20.0 20.0 20.0 20.0 20.0
          20.0 20.0 20.0 20.0 20.0 20.0
          20.0 20.0 20.0 20.0 20.0 20.0
          20.0 19.9644617316 19.4554072308 18.9513803204 18.4586596985 17.9779479895
          17.5111237421 17.0583771069 16.6185494458 16.1915641183 15.7671591498 15.3372955734
          14.9149654691 14.4998489893 14.0943872995 13.6971502103 13.3037055008 12.9136510645
          12.5303837799 12.154977886 11.7956023444 11.4447809195 11.1126469098 10.7846961737
          10.4430387387 10.0736515863 9.71057163086 9.32500086945 8.92791957764 8.56129971191
          8.28235269318 8.14902283173 8.17337798309 8.36917427734 8.75393965759 9.31132692322
          9.96520522339 10.6110418106 11.1353190982 11.5208532852 11.8340355676 12.1364604117
          12.4413895099 12.7584408871 13.0367863617 13.3486069601 13.763671792 14.2936270584
          15.0924565747 16.0966318579 16.8914832074 17.4829824573 17.8795961792 18.079878656
          17.9477544208 17.5362370276 17.4437468573 17.3164108704 17.0985834735 16.8971093732
          16.7606691473 16.6879592819 16.6303466037 16.6026418085 16.6170947565 16.8374086646
          17.0970999304 17.2178989276 17.2375187396 17.1987226917 17.0945982654 16.8979255005
          16.6491165945 16.3662490308 16.0508300632 15.6923744043 15.3663688672 15.0435463019
          14.8009968927 14.6326724823 14.6205494391 14.5280716214 14.377781033 14.2482440204
          14.1254688644 13.9863014886 13.8522736819 13.4334758014 12.6715475385 11.9613153091
          11.2300837613 10.2309553922 9.00230680206 7.90938016846 7.28655156509 6.94287763092
          6.79866916626 6.86894886505 7.05813666489 7.44830868027 7.67251063507 7.86956968109
          8.12132846329 8.365837276 8.53580923401 8.47164775085 8.2634224469 7.96197653412
          7.49494665176 6.83640339752 6.22260085236 5.80707027557 5.7845469223 5.97819454193
          6.22882077042 6.26756720749 6.09997166504 6.26060050095 6.43496218704 6.4942499585
          6.56132138824 6.52182865875 7.19428416107 7.43641448639 7.47639214447 6.9207888858
          6.78308166412 6.97597041153 7.12046854706 7.1545021579 7.15898781387 7.13663749252
          7.11752434082 7.03122817017 6.86786757446 6.78686731567 6.86698989166 6.93013046417
          6.98052165375 7.02489021851 7.01151188202 7.03517648819 7.09900542603 7.12495637589
          7.15129994781 7.18245157227 7.21294592041 7.27164754974 7.3832441687 7.49520353241
          7.67011023422 7.94420914291 8.30525533142 8.70436611786 9.19596719421 9.69871529175
          10.2255134772 10.7431913855 11.3605767685 12.0436484955 12.9387917804 14.0945354324
          15.5036569318 16.6581780505 17.6431014832 18.214137113 18.86090823 19.7276195966
          20.0 20.0 20.0 20.0 20.0 20.0
          20.0 20.0 20.0 20.0 20.0 20.0
          20.0 20.0 20.0 20.0 20.0 20.0
          20.0 20.0 20.0 20.0 20.0 20.0
          20.0 20.0 20.0 20.0 20.0 20.0
          20.0 20.0 20.0 20.0 19.8130719275 19.3214631097
          18.8361002234 18.3579692139 17.8924649225 17.4386256531 16.9969178421 16.5676402338
          16.1498711838 15.7385508524 15.3213240988 14.9009109378 14.4941310501 14.1028602487
          13.7232706555 13.3497342902 12.981301763 12.6211092838 12.2654725995 11.9186288971
          11.593079516 11.2876422961 10.9893261685 10.6843393018 10.3607221649 10.0182974091
          9.64925044159 9.24163823486 8.82643955872 8.4767654332 8.18219542496 7.97177245636
          7.94433331528 8.16958164642 8.64050393158 9.31213508362 10.0693811285 10.7051132333
          11.2064748068 11.6021512354 11.9817263165 12.366413721 12.721326387 13.0323303906
          13.3524471057 13.8289668143 14.5039786725 15.2047005176 16.0835205884 16.9746944226
          17.5549952698 17.974707785 18.2740771985 18.2287830176 17.8259067963 17.6700790961
          17.4621929285 17.2582511896 17.0490032544 16.8104582233 16.6050383542 16.5119298929
          16.480284465 16.5037461667 16.7897106738 17.112814552 17.2571881885 17.2733446753
          17.2278043494 17.1317210773 17.0121823151 16.8239353455 16.5759328766 16.3243589066
          15.9791712479 15.6075949347 15.2651725726 14.9591973505 14.7636582928 14.6768854495
          14.630799631 14.5690959592 14.4640301563 14.3795300348 14.2539978705 14.1003706317
          13.5987154642 12.8974903702 12.1780564056 11.5043463379 10.686126203 9.34258259094
          7.93268195206 7.07475548706 6.77536632339 6.61128972992 6.79007802521 6.97565288666
          7.38116682281 7.70666874664 7.91366544052 8.13383902359 8.32249111053 8.46203997253
          8.40364721497 8.22942363907 7.95876863678 7.58450181793 6.99524671051 6.34426320786
          5.83549007675 5.68247894165 5.83132332855 6.16564012314 6.34147658936 6.23492962479
          6.17771981903 6.33926556778 6.43378953247 6.52893859238 6.62730111725 7.04313182251
          7.5578919603 7.53058347778 7.16490265961 6.73112301285 6.89804447723 7.03656186646
          7.08145040665 7.1002738121 7.08858231461 7.0214719838 6.90651332001 6.72029789459
          6.57546406097 6.47289152542 6.44037235352 6.38488374573 6.37212660324 6.37740355377
          6.40866866867 6.56972636475 6.68470839935 6.79109652557 6.88576311661 6.98961390015
          7.1453372049 7.32895900742 7.48101105194 7.71467794464 8.08803664902 8.4743609137
          8.90750385925 9.34778645721 9.68950883789 10.0769493237 10.4723429657 10.962755705
          11.5683075046 12.3390531586 13.3239041678 14.5213243951 15.3688655814 16.1352668805
          16.5815240363 17.1788603906 17.934458382 18.6932848596 19.3944308496 20.0
          20.0 20.0 20.0 20.0 20.0 20.0
          20.0 20.0 20.0 20.0 20.0 20.0
          20.0 20.0 20.0 20.0 20.0 20.0
          20.0 20.0 20.0 20.0 20.0 20.0
          20.0 20.0 20.0 20.0 20.0 20.0
          20.0 19.6742364301 19.1922505859 18.715213064 18.2510733118 17.798014173
          17.3566052588 16.926029776 16.5063541254 16.0937492432 15.6908226047 15.2850286667
          14.8834843524 14.488445943 14.1070922385 13.7403320721 13.3805201691 13.0324668631
          12.6968750009 12.3660567654 12.0432420343 11.7340255609 11.4472763458 11.1728440939
          10.8924616058 10.6053556351 10.3063230148 9.9781380838 9.59333715759 9.20420957397
          8.8156037915 8.42965098282 8.06495578979 7.78767378159 7.73928699219 8.02235845596
          8.61516978333 9.3849741507 10.1581191208 10.7974794769 11.3304965665 11.8041106027
          12.2461519449 12.6420069257 12.9968326331 13.483442695 14.0985437592 14.8011495505
          15.4979336618 16.1046210184 16.8737447333 17.5994433368 18.153775741 18.397625929
          18.5202141583 18.2786151044 17.9484995514 17.7089725842 17.4827420984 17.2336882135
          16.9601699994 16.6775190405 16.4435446539 16.4019062943 16.436647424 16.7453760397
          17.0962903113 17.2616845764 17.2729014117 17.2473243396 17.1824539417 17.1165546033
          16.9233933234 16.7105341577 16.4694287811 16.1435859549 15.7772732513 15.4090458746
          15.1323812234 14.9088027032 14.6949220123 14.6857599075 14.6786806525 14.634826951
          14.5579139655 14.4572863696 14.238439429 13.7306599417 13.0599430597 12.3432234369
          11.5930613312 10.8801478302 9.77504249725 8.16802786011 6.99878544952 6.58117400269
          6.44723771393 6.56376750046 6.83021083771 7.11556409897 7.60360310303 7.89246191147