<VTKFile type="PolyData" version="1.0" byte_order="LittleEndian" header_type="UInt64">
  <PolyData>
    <Piece NumberOfPoints="40401" NumberOfVerts="0" NumberOfLines="0" NumberOfStrips="0" NumberOfPolys="40000">
      <PointData>
        <DataArray type="Float32" Name="zvalue" NumberOfComponents="1" format="ascii" RangeMin="-1.43964720497" RangeMax="5.03713688589">
          3.80996258682 3.76745901185 3.72751545066 3.68997397606 3.65477313359 3.62196020076
          3.59089756154 3.56130617219 3.53263973315 3.50474986715 3.47747318766 3.45049330519
          3.42509250917 3.39994529751 3.37442407621 3.34868553191 3.32332630094 3.29729799833
          3.27022700791 3.24195009194 3.21263519743 3.18213456969 3.15122062683 3.11979154002
          3.08806275768 3.05603717319 3.02363298123 2.99038397216 2.95673764059 2.92293032019
          2.88897088856 2.85496257066 2.82073401821 2.78625985675 2.75172380385 2.71730250566
          2.68319361115 2.64876540258 2.61364249191 2.57782959602 2.5394011989 2.49513913534
          2.44732431054 2.39609507709 2.34419515727 2.29679711417 2.26319604396 2.25521201422
          2.27666265997 2.31929361004 2.37243672215 2.42826236009 2.47932458979 2.51981819244
          2.54038455563 2.54379547284 2.5396606185 2.53859592527 2.55484267298 2.58870519589
          2.61532282589 2.63650966449 2.65182361576 2.67436617358 2.69861258931 2.71099961776
          2.7271796571 2.74440756778 2.76347780885 2.78657146888 2.81209818173 2.84229249463
          2.87231326776 2.88484662155 2.89875182079 2.90814786427 2.91288260657 2.91469318953
          2.92590273125 2.9344825103 2.93740652467 2.93187026172 2.92265513812 2.91320275317
          2.9087652046 2.90438656867 2.89745904845 2.87933852077 2.85177005066 2.8218772857
          2.79287192569 2.77812339185 2.76227242196 2.74468055452 2.72785904938 2.71097905948
          2.68536905981 2.65641291456 2.62240332243 2.59135672466 2.59935168859 2.6157400951
          2.64078949271 2.65886058949 2.66049315631 2.6503678687 2.62833913252 2.59704028755
          2.56985364425 2.54607050737 2.50753812212 2.45481669413 2.42054250846 2.37622404588
          2.32018091895 2.26341019288 2.21464629516 2.17165566079 2.13581713648 2.11020361845
          2.12455141413 2.19125608502 2.2756948551 2.34731800995 2.37897317277 2.38800382215
          2.39037159143 2.38112528777 2.35424435864 2.29814836281 2.23581809788 2.15874534685
          2.06537971066 1.99349350743 1.95302547999 1.95853038132 1.98472850153 2.00504924574
          2.04399157747 2.08925198267 2.09597094557 2.05065055439 2.01214966662 1.96619882287
          1.94818695808 1.94625558968 1.95299907259 1.9643452345 1.9929481045 2.01920156232
          2.03563133114 2.04337433152 2.0448458815 2.04643297289 2.0520462796 2.06043799247
          2.07232549554 2.08019536957 2.08373119039 2.08610637284 2.09059355249 2.10188479649
          2.11727551169 2.13180736489 2.16846319486 2.21520468406 2.2427140977 2.24227788307
          2.25163622306 2.27119780104 2.27312529488 2.27713600589 2.2884026118 2.29954307414
          2.31151564277 2.33118515946 2.35850250881 2.38874446147 2.42091093806 2.4492475542
          2.48249725633 2.5281396472 2.58574845401 2.66867881431 2.75405466529 2.85829804426
          2.98967956668 3.10005794372 3.18732122843 3.2504896114 3.3068558744 3.36763208522
          3.42335244445 3.48071107627 3.52622698162 3.58210611302 3.6404167906 3.72148837964
          3.79383441511 3.87329893687 3.94144389791 3.792807163 3.74985032498 3.7092545463
          3.6712523603 3.63549018126 3.60214956039 3.57039741586 3.54035883126 3.51138492019
          3.48348707878 3.45648682967 3.42987739172 3.40434648089 3.37985068492 3.35534481339
          3.33070204664 3.30608821246 3.28095634214 3.25529639245 3.22838960476 3.20027328149
          3.17113648558 3.14095112515 3.1102154447 3.07924761051 3.04799569347 3.01641694166
          2.98467894964 2.95221644593 2.91939568897 2.88640980922 2.85323301655 2.81980867406
          2.78624601005 2.75259308728 2.71890461966 2.68586923944 2.6521225281 2.61766335432
          2.5822232414 2.5452202157 2.50503577014 2.45894024547 2.40980322204 2.35863459191
          2.30659532817 2.25953601404 2.22726513265 2.220411716 2.24526215284 2.28986800749
          2.34563895221 2.40146085325 2.44896631651 2.47791490543 2.49039616589 2.49269757688
          2.49108787893 2.50283878416 2.53914544902 2.58024381301 2.60934571703 2.62855234193
          2.64867337699 2.66750692515 2.68194027056 2.69557526056 2.71504955075 2.73627779355
          2.75933637869 2.78411314997 2.81083309834 2.84385149583 2.86534558824 2.87463219805
          2.88340804203 2.88658216267 2.88442194792 2.89154279932 2.90098970463 2.90779425267
          2.90737037162 2.90246872866 2.89510815142 2.8905574109 2.88739093249 2.88192928987
          2.87066719318 2.84935623403 2.82324488496 2.80140248909 2.78634700533 2.76662200636
          2.74353898795 2.72318044325 2.70435090443 2.6817361127 2.65004464262 2.61295165666
          2.58527383014 2.580246709 2.60029190013 2.62180147352 2.64498202732 2.65794734263
          2.64868555845 2.62255650546 2.59278569374 2.56171869174 2.53322810122 2.49353239989
          2.45141376993 2.41627821741 2.37037314231 2.32253128466 2.25906300283 2.20197270292
          2.14236155527 2.08577446999 2.04446897873 2.06065720978 2.09953709766 2.19085239601
          2.28008931477 2.33908771203 2.36367887298 2.3672828384 2.35030188112 2.31380661805
          2.25901203338 2.1904675663 2.10193374913 2.00288049629 1.92233715352 1.88170899513
          1.87768949525 1.89381751198 1.93209080743 1.95247055063 2.00284577083 2.04577701413
          2.0440434396 2.00449458862 1.96626955958 1.94538773267 1.93914197378 1.94345142384
          1.9521625016 1.97516261223 2.00159715854 2.01630037066 2.0303400742 2.03686987358
          2.03268554077 2.03177812443 2.03947279576 2.05212525334 2.06045316877 2.06691249511
          2.07640583417 2.08837872697 2.10782283801 2.13008042857 2.15241376473 2.18685245104
          2.23213075785 2.25879196023 2.28146820127 2.29098464159 2.28652254723 2.28129829011
          2.28354569174 2.29708231752 2.29842114553 2.30358217039 2.31368576251 2.32151677524
          2.33820846323 2.35302666819 2.38996430946 2.438808987 2.49498579147 2.56503787936
          2.65825605428 2.75123516329 2.86520755811 2.98707855599 3.08984758601 3.16172041475
          3.21513158454 3.2741704387 3.33019007363 3.38564337847 3.43406203425 3.48382696942
          3.55431698285 3.62754303979 3.69770193058 3.77346805801 3.84886037061 3.91467535817
          3.77905674508 3.73553415546 3.6942394509 3.6553109594 3.61919622616 3.58520142805
          3.55297241838 3.52249189709 3.49329452817 3.46515927093 3.43795806156 3.41154706844
          3.3857942999 3.36154748727 3.33738945204 3.3138360907 3.29026997793 3.26586025789
          3.24090077499 3.21500793755 3.18815754957 3.16030869721 3.13138523327 3.10167110885
          3.07155412071 3.0409317922 3.01014509033 2.97918211042 2.94808065608 2.91662073178
          2.8845797133 2.85240577033 2.81999904214 2.78715373265 2.75432746212 2.72152350068
          2.68887588717 2.65532754945 2.62178554325 2.5876121875 2.55210911553 2.51441249085
          2.47246009707 2.4261236753 2.376788753 2.32544556169 2.27406681904 2.22818985487
          2.19484858181 2.18904216111 2.21452323741 2.26254850322 2.31937903542 2.37265244305
          2.4124826446 2.43559236593 2.4454647588 2.44572405805 2.45592552956 2.48910463423
          2.54038157964 2.57993876207 2.60289397642 2.62014984986 2.63817121365 2.6517874851
          2.66468425833 2.6857876135 2.70987367294 2.73416859602 2.75817369507 2.78424303335
          2.81523945721 2.84716738648 2.85964749379 2.86493196933 2.86351652318 2.86065511381
          2.86129051431 2.87043159835 2.88435026348 2.88826464454 2.88425701741 2.87923806713
          2.87762572647 2.87495270441 2.86908467141 2.85915950043 2.8461620677 2.82390820251
          2.80798255095 2.79364646386 2.77182598747 2.7495733246 2.72751641082 2.70483141665
          2.68191273807 2.64580568907 2.6087037343 2.582071453 2.5642470714 2.58449879646
          2.61111451194 2.63202895351 2.65414492557 2.65478447033 2.62514153636 2.58762849509
          2.5559983587 2.52502592448 2.49166454661 2.46639037656 2.42272025373 2.36569674287
          2.31648580059 2.26148169025 2.19310832513 2.1226843193 2.05214358357 2.00878692533
          2.01646284639 2.03260452948 2.09871603387 2.19271139138 2.27080346706 2.31999127086
          2.34260882693 2.33462428199 2.29885716051 2.24085635688 2.16758515191 2.07492159267
          1.96824861372 1.88293152769 1.83939272374 1.83103858477 1.84131363262 1.8582800564
          1.88728009162 1.91197666252 1.95941164869 1.99466041317 1.99535213425 1.9616552763
          1.94966696174 1.94252295886 1.93891027538 1.94398805087 1.96165764369 1.98289014474
          1.99883163255 2.01878175662 2.02850917797 2.02848083633 2.02141174544 2.01934310773
          2.02666333264 2.03427924979 2.04332359021 2.0597003646 2.08381896539 2.11468656161
          2.14105044416 2.16835960774 2.20878544753 2.23441178737 2.25977434567 2.28481711624
          2.30049094057 2.29782653628 2.28544996386 2.2836357797 2.2878516957 2.28690844222
          2.29279475068 2.29718322255 2.29653735051 2.29534776144 2.32551645459 2.37911974299
          2.44088729963 2.50541954297 2.58283765154 2.67358731919 2.76440491825 2.87360657275
          2.98393280026 3.06738673557 3.11841392373 3.16854560828 3.2273297203 3.28166592935
          3.33825011986 3.40202189627 3.46796806235 3.53278653182 3.60379417088 3.67143371029
          3.74549107441 3.81623135039 3.87955013635 3.76863851698 3.72439236561 3.68239930799
          3.64272565604 3.60598989617 3.57137696793 3.53858617708 3.50767949371 3.47826352601
          3.44970154727 3.42210055586 3.39548725129 3.36943845276 3.34516716246 3.32112465413
          3.29795676751 3.27476963198 3.25115829188 3.22699656074 3.20213627308 3.1764100623
          3.14965950068 3.12195135214 3.0934179185 3.06428669551 3.03461246307 3.00442592014
          2.97405417499 2.94377089112 2.91348604536 2.88266300088 2.85126052265 2.8198864104
          2.7881484825 2.75627147579 2.72452557202 2.6925940172 2.65999615086 2.62759394181
          2.59495437099 2.56126204191 2.52525703229 2.48583477704 2.44406877395 2.39772604525
          2.34939122944 2.29910454293 2.24970070226 2.20405839813 2.16876043339 2.16197792411
          2.18555759112 2.23345038836 2.28795538144 2.33796520854 2.37450008639 2.39346457758
          2.40199379624 2.41527474542 2.44842879121 2.50300822052 2.54614079239 2.57216054752
          2.5896768447 2.60753666639 2.62153041311 2.63584238822 2.65596659859 2.68148494299
          2.70764139486 2.73294054358 2.75741752337 2.78821354817 2.82138815948 2.84813579121
          2.8544571523 2.85164689764 2.8445754728 2.84477817606 2.85720575507 2.87119071468
          2.87399608226 2.87008418185 2.86622610703 2.86532902976 2.86302955482 2.8580172874
          2.84952720713 2.8390058423 2.8241085814 2.81346911053 2.80238861173 2.78136020432
          2.76099214528 2.73654666999 2.71129563232 2.68197743018 2.64280087048 2.60915391538
          2.58115174394 2.5676595018 2.573563306 2.59871797054 2.62957976622 2.6487833509
          2.64546323661 2.62507592576 2.59979064042 2.56683992498 2.53342280835 2.50631167944
          2.48756077858 2.44402497408 2.36949458205 2.30942115505 2.25509712708 2.18679513439
          2.09770982941 2.02926192278 1.97956247718 2.00068309149 2.01179692001 2.0302714818
          2.09980808605 2.19477214268 2.2583991868 2.29593252328 2.30656157936 2.28222428418
          2.22724816774 2.15595989554 2.07345373132 1.97373344925 1.88465257387 1.82508369784
          1.8069781939 1.81455593086 1.82133539005 1.83917359668 1.86073081269 1.88794217003
          1.91863055945 1.93924565622 1.95521108728 1.94074090314 1.94844055967 1.9469521869
          1.9433818209 1.95346896395 1.96395236036 1.98205412232 2.00706633221 2.02195616505
          2.02455316602 2.01912690423 2.01577343357 2.01538743951 2.01731748797 2.02679361335
          2.04495478487 2.07186257084 2.11371421599 2.15202309317 2.18159826267 2.21679984979
          2.24243695578 2.26293624322 2.27756018632 2.27874692351 2.28399798221 2.27851637818
          2.26758335133 2.25688215639 2.25913060003 2.27429469214 2.27423227135 2.27214779186
          2.28714677445 2.32595286615 2.38337811129 2.44809019005 2.51588042559 2.59928734679
          2.68116233431 2.76658945336 2.86132308643 2.94990366029 3.01843403618 3.05942737017
          3.10831437543 3.17684230813 3.25891440965 3.32216563006 3.37177046865 3.42830589107
          3.49188305693 3.56477895325 3.63479406619 3.70414269149 3.76881303696 3.83499669581
          3.76203602797 3.71698219112 3.67403768663 3.63360999205 3.59593165775 3.56066180166
          3.52731041629 3.49589860791 3.46602128354 3.43704254917 3.40887367013 3.38172665439
          3.35537686921 3.33052735105 3.30676817059 3.28364737079 3.26064302245 3.2373219789
          3.21374274056 3.18975440806 3.1649487212 3.13930989848 3.11277698775 3.08517023166
          3.05677508463 3.02789861852 2.99859642844 2.96896197134 2.939302382 2.90978302919
          2.88035907386 2.85053188443 2.82016835323 2.78953946699 2.75872191902 2.72798453922
          2.69690611265 2.66538193999 2.63429339122 2.60316488545 2.57145009831 2.53716551434
          2.50065667372 2.46163974734 2.41951938035 2.37437959649 2.32752691948 2.28034791441
          2.23304816945 2.18756083347 2.15277748841 2.14115492343 2.16142852143 2.20769202529
          2.25986521919 2.30641206234 2.33686234199 2.35737342395 2.37806247009 2.41647593157
          2.46718656006 2.51149470375 2.53724263062 2.55493062129 2.57363061025 2.59097654809
          2.60877095121 2.62971296966 2.6526790591 2.67894566518 2.70655893151 2.73281330965
          2.76062408266 2.79492591932 2.83762286309 2.85634693444 2.85996678941 2.85276894434
          2.83844855792 2.84730698512 2.86210894492 2.86170473555 2.8604864127 2.85804896368
          2.85521570933 2.85350811552 2.85110924812 2.84472638063 2.83629221474 2.82585874321
          2.82730424692 2.8203630153 2.80714261771 2.78809756588 2.76319768257 2.73157774434
          2.69648056424 2.65361139954 2.62060324042 2.59723648402 2.5794610559 2.57414827532
          2.59758754472 2.62314291919 2.65070821586 2.65111559574 2.63354359397 2.60922569202
          2.5784053975 2.55238516727 2.53112907899 2.515245216 2.46562265108 2.38785609525
          2.31066296508 2.24578309734 2.17834107981 2.08689256312 2.02434427179 1.97633602905
          1.96477083878 2.00115476558 2.01216166469 2.04368468547 2.11914026301 2.19418573268
          2.23727577428 2.25431558814 2.25437743119 2.20971657215 2.14758274322 2.06708089849
          1.97477744179 1.88854408035 1.82721799747 1.8011629333 1.79743636594 1.80747741289
          1.81515264271 1.84236924566 1.86827165002 1.88972972679 1.8925131488 1.90527218489
          1.93387747077 1.93932390489 1.95873759971 1.95787606304 1.95494383382 1.94956910343
          1.96587145346 1.9979842486 2.01590876278 2.02013737649 2.01279890363 2.01060953934
          2.009331885 2.00470608151 2.0100594632 2.02713641241 2.05605238598 2.10613115985
          2.15704013345 2.18580689023 2.21457576485 2.22728489098 2.2386349567 2.24275324208
          2.24787334771 2.24690468049 2.23306914523 2.21867310771 2.21904505074 2.22029452243
          2.22835335756 2.22645617735 2.22799374031 2.25684261882 2.30498398675 2.37650196921
          2.44157965963 2.52114580404 2.59843432658 2.65982270267 2.74170589029 2.82147482479
          2.88723280894 2.94634798398 3.00575189957 3.09036492403 3.17140254854 3.23268664623
          3.28053499605 3.32663824343 3.37925165427 3.44293793791 3.51325741826 3.58006900587
          3.64664892416 3.71196521113 3.78392791419 3.75918862959 3.71334998763 3.66950116158
          3.62803507268 3.58900874845 3.55286978502 3.51912927831 3.48696065912 3.45637367789
          3.42674496129 3.39807831413 3.3702796748 3.34342318933 3.31770254619 3.29388015179
          3.2706879156 3.24775092724 3.22467381553 3.20139914545 3.17781456433 3.15367793947
          3.12878375901 3.10301230561 3.0764883113 3.04902690829 3.02090829991 2.99240782826
          2.96377721505 2.93511388239 2.90634293046 2.87754004719 2.84892963419 2.82019570903
          2.7908652561 2.76125577146 2.73193512497 2.70169371865 2.67131746628 2.64105430219
          2.61104963754 2.58016535351 2.54744759944 2.51305190183 2.47696766942 2.43828232374
          2.39711339678 2.35394697252 2.31056446462 2.26611536947 2.22113836935 2.17860966522
          2.14615502768 2.13379229724 2.15203751901 2.1917897902 2.23925190628 2.27862836137
          2.30999790246 2.33983343677 2.38290415977 2.43185416707 2.47158549506 2.50266112269
          2.52412811077 2.54270714478 2.56023859918 2.58014241921 2.60173742369 2.62520550306
          2.6500831178 2.68153270278 2.71257979565 2.74437187217 2.78125010859 2.82972379795
          2.86031359953 2.86800034111 2.86093332087 2.84221372627 2.84481248581 2.85165112001
          2.85190722818 2.8509290201 2.84831215248 2.84612308046 2.84434241255 2.84335680217
          2.84079345001 2.8369108646 2.8297653876 2.84113768568 2.83825457145 2.83152170823
          2.81749770045 2.7965445487 2.77058691632 2.73568817367 2.69424106815 2.66456921498
          2.64233242296 2.62192078732 2.60839362756 2.61470387983 2.6371246001 2.66130307427
          2.66303135738 2.640737222 2.61168604572 2.58884086239 2.57161382016 2.55653079422
          2.54226922296 2.48355575419 2.41385245216 2.3288871894 2.2492900808 2.17882804021
          2.09601426108 2.02180584491 1.96967884524 1.95050544793 1.97558840649 1.99931198887
          2.02032494072 2.0705117571 2.14255970652 2.1922223091 2.21129692013 2.21447309244
          2.19868579748 2.13635576765 2.06009627545 1.98190881013 1.89162017698 1.83204104118
          1.80092977247 1.8019563672 1.80513189185 1.80479732937 1.81733994094 1.85917326652
          1.88441661864 1.88750901626 1.88133692998 1.90491776472 1.94440798358 1.97651858026
          1.97640293086 1.96701877888 1.94359412559 1.95757093312 1.99085448761 2.00798971313
          2.01098651127 2.00553315134 2.00297028803 2.000481972 1.9928918496 1.9903901851
          2.00362641095 2.02981874807 2.07900421994 2.14243508132 2.17180009236 2.17766233562
          2.18378480567 2.19170436138 2.19277511258 2.19214455272 2.18173516326 2.16475698703
          2.15408658577 2.15019811404 2.15164725521 2.15231404635 2.15257002494 2.18006226586
          2.22229842441 2.28085487093 2.35694343894 2.4360325493 2.504200917 2.56749509164
          2.62631072435 2.6886013163 2.75035459605 2.81394954414 2.91273254247 2.99949996376
          3.07573499561 3.1432783789 3.19060738705 3.22853182791 3.2677351273 3.31725388212
          3.37565481815 3.44468961686 3.51130839457 3.57803523673 3.65039712398 3.72826381149
          3.76012319779 3.71339496064 3.66857444266 3.62593130042 3.58556484594 3.54815693015
          3.51372037415 3.48110510415 3.44955552246 3.41912897507 3.38960584931 3.36099027023
          3.33342445792 3.30667841375 3.28240181315 3.25894906294 3.23578135714 3.21266083767
          3.1893740669 3.16590828143 3.14202805178 3.1177361948 3.09292661562 3.06735638514
          3.04097938099 3.01389892724 2.98626919566 2.95843442828 2.93053780032 2.90265283639
          2.8748615075 2.84707834276 2.81927891337 2.7915625507 2.76347031363 2.73509870302
          2.70572227765 2.67632584763 2.64684586924 2.61734063178 2.58625490566 2.55418375366
          2.52152101141 2.48809360006 2.45307945894 2.41625197179 2.37877219444 2.33914523446
          2.29806594609 2.25650474614 2.21413884046 2.17488642359 2.14248403025 2.13145688861
          2.14723891095 2.18242608474 2.22451162196 2.2597760099 2.29521956172 2.346286024
          2.39700885116 2.43739078518 2.47160972493 2.49740978328 2.5180745438 2.53685602872
          2.55415585857 2.57554261208 2.60041536117 2.62401317772 2.65305800958 2.69181093776
          2.73066993995 2.77654004824 2.82434485438 2.86061336301 2.87673934103 2.8708832323
          2.85398276666 2.85295941002 2.84829487461 2.84371352978 2.84290517663 2.84097495701
          2.83708758021 2.83505177611 2.83461962206 2.83463303919 2.83483292377 2.8338440972
          2.84563367611 2.8477708577 2.84616459072 2.83747031617 2.82137517267 2.80072668743
          2.77174371337 2.74105620846 2.71455339145 2.68988574414 2.66923154976 2.65093401497
          2.64481583097 2.66437053639 2.67336160146 2.66591652568 2.64789001841 2.62581229119
          2.6089455205 2.5959793889 2.58456584551 2.56859595577 2.50147527807 2.44040497206
          2.35422023794 2.26483113992 2.18027512473 2.10088585449 2.02768822638 1.96971601253
          1.94394717073 1.95497852246 1.99124846934 2.01188077783 2.04286155832 2.09595770334
          2.15224822025 2.18593404667 2.18570862661 2.17293900888 2.14274139635 2.06127706759
          1.97753131561 1.90430536304 1.83131612688 1.79651516341 1.8029153689 1.81894656169
          1.81912367592 1.81161507867 1.84484609558 1.87853636783 1.88207561142 1.87761486956
          1.87177078882 1.93469374785 1.97355230542 1.99493970776 1.97476265132 1.94149128352
          1.95257729362 1.98081773754 1.99833022068 1.99978801292 1.99565367159 1.99411018828
          1.99118076858 1.98142702263 1.97186764347 1.98077782637 2.00705583196 2.050526746
          2.10472055842 2.1381881675 2.13751769498 2.13588215918 2.13611964246 2.12986420192
          2.11688120182 2.10940394765 2.1031900487 2.10032722331 2.09382431733 2.08633028854
          2.08935444234 2.10819573341 2.14366080797 2.19485895913 2.25478877548 2.32614874138
          2.39714034194 2.4598369119 2.51740386005 2.56896098622 2.62050930464 2.69329062728
          2.78896373683 2.89214031362 2.97421570151 3.03834564458 3.08548837021 3.12377172552
          3.16015684312 3.20122867057 3.25151391354 3.30387324184 3.37299404688 3.44079923882
          3.50905751716 3.58435686783 3.66382196515 3.76474951856 3.71714127407 3.67127550995
          3.62739454395 3.58569687529 3.54693492024 3.51125580852 3.47768919844 3.44543552236
          3.41393187829 3.38334385945 3.35395238249 3.32540656062 3.29792035784 3.2725712227
          3.24850052072 3.22471698442 3.2013835536 3.17810393341 3.15470830675 3.13107226915
          3.10710336536 3.08277119758 3.05793532839 3.0326156883 3.00654531427 2.97992441221
          2.95296629974 2.92594265772 2.89888070198 2.87189906443 2.84517251636 2.81844046571
          2.7915583668 2.76430093981 2.73678643442 2.70848516887 2.67983288643 2.65074098649
          2.62140130113 2.59134896022 2.56028651483 2.52872658091 2.49736539716 2.465333013
          2.43225253444 2.39955468803 2.3655064907 2.32815958188 2.2895294229 2.24995494189
          2.20891204062 2.16877030642 2.13763250802 2.12560566517 2.13841592117 2.16583979241
          2.20065734002 2.24412289847 2.30118528807 2.35944446335 2.40691791956 2.4462968964
          2.47422454782 2.49674366124 2.51728245633 2.53704370413 2.55903903803 2.5825035813
          2.60785736208 2.63443322683 2.66970491876 2.72402645388 2.77864705496 2.8266415514
          2.86199883509 2.88345699973 2.88261389265 2.87233656543 2.8600393872 2.85395788786
          2.84844426482 2.83756403048 2.8332706159 2.83019719007 2.82625866549 2.82536545538
          2.82625333526 2.82697742365 2.83430949113 2.8453132026 2.85009614188 2.85054430778
          2.84812679675 2.83796757748 2.82216460291 2.80054551676 2.77705948074 2.7539054192
          2.73105689527 2.71014893955 2.68911762581 2.67938574929 2.68233757926 2.6818334965
          2.67170888282 2.65879074868 2.64604209049 2.63178234351 2.62065885487 2.61104124185
          2.58823284514 2.52686427492 2.46278370914 2.39218768303 2.29653470584 2.18955237341
          2.09200475528 2.02169051955 1.96709813672 1.94251841923 1.94421568539 1.98261514266
          2.0199888015 2.04321485918 2.07335212689 2.11824564683 2.15772188556 2.17294337292
          2.15938820876 2.12924250834 2.07965477378 1.99554329794 1.91119715622 1.83377757205
          1.78555669595 1.79121829942 1.8173963346 1.83804109411 1.82814918082 1.82395892912
          1.87254773143 1.87769108309 1.88819939684 1.87878573832 1.90550010943 1.9849158246
          2.01085844665 1.98653931219 1.93765492874 1.94146751916 1.97008846158 1.98672082846
          1.98694891123 1.98783978728 1.98706651592 1.98602129386 1.97569010523 1.95854419548
          1.95818321588 1.98090623501 2.01004574384 2.04503644877 2.07119119041 2.06983283159
          2.06159977268 2.05974284133 2.0558221696 2.04898665463 2.04787701698 2.047824087
          2.04358297232 2.04362265291 2.04776295178 2.05810340398 2.08458100117 2.12492231503
          2.17551519547 2.23037880919 2.29121281356 2.35686638509 2.41826421339 2.47231059242
          2.52899742838 2.59082603874 2.67054590924 2.77522039931 2.86573800833 2.94068031834
          2.98937123396 3.02717841165 3.0646403067 3.10216737502 3.13531974777 3.18020061965
          3.23521742371 3.30218587853 3.36444898622 3.43615440224 3.51495605387 3.59751612418
          3.77257327442 3.72417561523 3.67734813681 3.63233710578 3.58943577572 3.54917499031
          3.51199665232 3.47717419613 3.44363356303 3.41111284649 3.37954652323 3.34914080951
          3.31956630906 3.29131644489 3.26483599209 3.23994752986 3.21538482457 3.19155765903
          3.16813270713 3.14464956178 3.12107294865 3.09734112741 3.07326324564 3.04878688069
          3.02393283842 2.99895017712 2.97325183289 2.94713955671 2.92093651023 2.89469285237
          2.8685307332 2.8424865154 2.81651884826 2.79064743509 2.76425151094 2.73678637209
          2.70904740167 2.68101118546 2.65284662587 2.62446206434 2.59553119864 2.56599888839
          2.53610532228 2.50593221249 2.47616878092 2.4462334664 2.41704232962 2.38735778191
          2.35546580694 2.31980120032 2.2834605421 2.24336582558 2.20032195081 2.15886479352
          2.12612862607 2.11009474869 2.11304288792 2.13643301599 2.18086251902 2.24191395569
          2.30908444869 2.3712751543 2.41906230739 2.45280118119 2.47939444946 2.50442005321
          2.52903433528 2.55400047407 2.57541641402 2.59887552895 2.62927187873 2.66678554323
          2.72079902669 2.78480331062 2.83271223072 2.86693152845 2.88923756935 2.90031541414
          2.89302126822 2.86995570739 2.86469758199 2.8574129152 2.84482702424 2.83304329273
          2.82498364024 2.82066192004 2.81722423228 2.81556689904 2.81643183397 2.82952470613
          2.84474076091 2.85174058675 2.85287286651 2.85063266593 2.84459528016 2.83309130723
          2.81834551626 2.8013127727 2.78197144545 2.75952719089 2.7386679161 2.71757445452
          2.70142811626 2.69006764527 2.68924443863 2.68294239646 2.67261513164 2.6636275668
          2.65503394006 2.64520279952 2.63564248294 2.60516630508 2.54721984817 2.49000324913
          2.42746146789 2.33514476599 2.20852787613 2.08061337587 1.99966099075 1.95201684104
          1.93132851855 1.94146440494 1.96824970477 2.02132352231 2.05059323124 2.07563049901
          2.10673180955 2.13603892103 2.15591742278 2.14845998377 2.12386772692 2.08715875401
          2.0274831119 1.93678339775 1.84413065078 1.77614998525 1.77232974918 1.80470770154
          1.84511392661 1.85121748258 1.82454472189 1.85012279128 1.87716656084 1.88619805089
          1.89631787152 1.89037156424 1.98709104982 2.01974653661 2.02503711596 1.94887558862
          1.92906646796 1.95670459476 1.97691984651 1.98162226343 1.98224039954 1.97915666378
          1.97651200502 1.96448347347 1.94130923456 1.92961631047 1.94118326516 1.95020526385
          1.9573475849 1.96359431811 1.96171486284 1.96503698618 1.97394288121 1.97754119604
          1.98118075594 1.98546755995 1.98964619127 1.99764122935 2.01266641035 2.0275169339
          2.05028435144 2.08495247144 2.12885714491 2.1752477482 2.22958067108 2.2822512844
          2.33461786906 2.38353736094 2.43891303886 2.49680627553 2.56792889733 2.65285706184
          2.74750530549 2.81888638094 2.87599679154 2.90767328145 2.9423793981 2.98707589481
          3.02772599468 3.05517245664 3.11245636491 3.17298021943 3.23615086005 3.29486044219
          3.36921798541 3.44915823205 3.53031802681 3.78327373238 3.73412393997 3.68642723446
          3.64046092877 3.59646166543 3.55494137417 3.5160827966 3.47957920016 3.44446957274
          3.41057182796 3.37810120321 3.34683698534 3.31635903099 3.2873077866 3.25961585648
          3.23371201522 3.20832560108 3.18370276492 3.15979950092 3.13615218689 3.11240261987
          3.08873676474 3.06473992139 3.04036841118 3.01590120847 2.99137639686 2.96637880038
          2.94107016494 2.91549621294 2.88995305483 2.86440562886 2.83889820411 2.81346912908
          2.78808498159 2.76244689561 2.73575123337 2.70811092845 2.68061946503 2.65344337029
          2.62635345138 2.59895935047 2.57118386424 2.54326276195 2.51490812099 2.48645785414
          2.45899717244 2.43252875833 2.40598303924 2.37809501712 2.34762749688 2.31434540949
          2.27719040427 2.23448163674 2.18901760975 2.14905685328 2.11410808119 2.0883730934
          2.08496790756 2.11258392087 2.16796784608 2.24199982304 2.31938135556 2.38001946962
          2.42537555338 2.45977269117 2.49169408929 2.52303812579 2.55110990847 2.57507715852
          2.59916103044 2.63397061521 2.6812940034 2.72816000459 2.78399347686 2.83759750911
          2.87101876145 2.89451360111 2.91094082335 2.90847266672 2.88624697356 2.87751609326
          2.86574846244 2.85406796623 2.84194005265 2.82793226031 2.81571037178 2.81012110549
          2.80821430668 2.80962834259 2.82670460065 2.84565413851 2.8540067254 2.85493711643