<VTKFile type="PolyData" version="1.0" byte_order="LittleEndian" header_type="UInt64">
  <PolyData>
    <Piece NumberOfPoints="2601" NumberOfVerts="0" NumberOfLines="0" NumberOfStrips="0" NumberOfPolys="2500">
      <PointData>
        <DataArray type="Float32" Name="zvalue" NumberOfComponents="1" format="ascii" RangeMin="0.000807416610718" RangeMax="6.41192678146">
          4.96520913269 4.78744745178 4.63262146667 4.49452482605 4.36747270538 4.24651777313
          4.12791373795 4.00909834167 3.88904119362 3.76621520203 3.63927652809 3.50931048904
          3.37741189598 3.24499810295 3.11276988541 2.98309480598 2.85780646851 2.73897909653
          2.6279018354 2.52612146019 2.435876586 2.35909598854 2.29736014549 2.25228571274
          2.22467488724 2.21486681595 2.22311959808 2.24954649925 2.29546639915 2.36147623749
          2.44804047752 2.55503894089 2.68228898354 2.82998892754 2.9968768338 3.17951173264
          3.37326020065 3.57207399979 3.77098871262 3.96715773483 4.15902221558 4.34467631935
          4.52056921234 4.68315887222 4.82935042938 4.95747897797 5.06724310318 5.15831130127
          5.2312601358 5.28721454895 5.3296766246 4.80366878021 4.62931652496 4.47673822723
          4.33923018845 4.2103884642 4.08535891342 3.95961625809 3.8306105825 3.69691735161
          3.55756816574 3.41251577232 3.26263296707 3.10985785805 2.95627729546 2.80420512688
          2.65702837097 2.51702962204 2.38607576118 2.26609501419 2.15756364777 2.06250147003
          1.98191726669 1.91736841125 1.87039278236 1.84080308311 1.82928382725 1.83572467648
          1.8603667144 1.90434092705 1.96819903664 2.05229320877 2.15662521347 2.28139200928
          2.42754078651 2.59573765945 2.78316707275 2.98578003922 3.19765673141 3.41407382614
          3.63245568184 3.85066959465 4.06488361488 4.27026780579 4.4627897905 4.63836396011
          4.79458897888 4.93036991425 5.04535231613 5.13959018631 5.21416996704 5.27188488022
          4.65043515884 4.47749334442 4.3255040654 4.18657823364 4.05411054871 3.92274082291
          3.78809045303 3.64716919792 3.4988001355 3.34234748734 3.179230224 3.01065445343
          2.83869539841 2.66649729919 2.49800373238 2.33669558334 2.18591742027 2.04733911011
          1.92203256912 1.81019330856 1.71341128151 1.6321683007 1.56703523582 1.51955190922
          1.4894021899 1.47652994915 1.48124326313 1.50332316219 1.544218405 1.60403970123
          1.68313906452 1.78162321373 1.9001332233 2.04119586338 2.20604002647 2.39265482727
          2.59792126839 2.81711957863 3.04589578873 3.28207121117 3.52265211121 3.7623019072
          3.9954943119 4.21724234062 4.42285166374 4.60873759476 4.77274040375 4.91399742142
          5.03228389587 5.12825235123 5.20437973068 4.50672143036 4.33344641968 4.17953003677
          4.03700465988 3.89868347664 3.75865788063 3.6130429879 3.45875414803 3.29464375961
          3.12164356773 2.94159937416 2.75608554428 2.56797299995 2.38119059357 2.20090807983
          2.03096903214 1.87407593613 1.73177038338 1.60501999931 1.4940495031 1.39875144115
          1.31931531586 1.25571387959 1.20896491497 1.17880584625 1.16522411903 1.16842189285
          1.1881601178 1.22525718754 1.27956334663 1.35178621922 1.44219300785 1.55191128403
          1.68410615849 1.84101103409 2.02144378338 2.22346984932 2.44380270233 2.67904094116
          2.92724558472 3.18485494904 3.44542998734 3.70319475624 3.95216797874 4.18638323219
          4.40173822075 4.59491439301 4.7638762587 4.90795380875 5.02754665192 5.12455156052
          4.3725919249 4.19743945099 4.03972911499 3.89102655289 3.74409518463 3.5933402314
          3.43491523972 3.26586092041 3.08633307777 2.89768541466 2.70231608643 2.50241833473
          2.30190749908 2.10612229744 1.91989870193 1.74634931496 1.58779781944 1.44632648731
          1.32219725449 1.21518661125 1.124120588 1.04866536232 0.988391045647 0.943660753937
          0.914323018341 0.900700400734 0.902522704048 0.919606463776 0.952188970566 1.00031410717
          1.06460077213 1.14555044868 1.24469553764 1.3657315094 1.51118938534 1.68126726448
          1.87509163197 2.09092285339 2.32612606697 2.57987404099 2.84779258499 3.12382825211
          3.40115497231 3.67313314346 3.93367357285 4.17697207977 4.3987103392 4.59571444603
          4.76636615288 4.9108419873 5.0302327742 4.24763253937 4.06895568146 3.90574280945
          3.74907575134 3.59151668556 3.42789940224 3.25478840363 3.07033165878 2.87587886398
          2.67297750061 2.46426353394 2.25350480873 2.04588339211 1.84634938271 1.65902782143
          1.48672347527 1.33164109451 1.19480560711 1.07661297066 0.975883582153 0.890793453674
          0.820637680359 0.76517532011 0.724350001793 0.697316702976 0.684256421413 0.684901420841
          0.698851631279 0.726396740913 0.76777142395 0.823906593513 0.894722991791 0.98242144207
          1.09084997498 1.22264373817 1.37932615761 1.56111622082 1.76738573589 1.99746671223
          2.25056518875 2.52215743729 2.80667874168 3.09755526718 3.38757505356 3.67036184677
          3.93903880363 4.18740202873 4.41120871178 4.60832238617 4.77786930199 4.92020554382
          4.13112939819 3.94780353638 3.77730903305 3.6107950943 3.44098900223 3.26304346664
          3.07426611053 2.87453922508 2.66563014725 2.45004966797 2.23118644341 2.01412228325
          1.8041227153 1.60555942062 1.42151814072 1.25476886669 1.10664275524 0.977545593376
          0.867169970207 0.773957717514 0.69618864212 0.632782617645 0.583157412224 0.547300440979
          0.523643310041 0.511893291454 0.511727699451 0.522864394302 0.545675502758 0.580433012772
          0.627821120758 0.688357339554 0.764329292946 0.859771150742 0.976962911644 1.11857908806
          1.28581558758 1.47899746269 1.69905561363 1.94618174957 2.21563468113 2.50239899612
          2.8005120472 3.10256346367 3.40227138985 3.69246719109 3.9648361795 4.21330024506
          4.43519256607 4.62881591225 4.7939685463 4.02158511963 3.83281063904 3.65365911186
          3.47600406067 3.29226100197 3.09932838623 2.89541845917 2.68098666214 2.45856497765
          2.23267849899 2.0075762442 1.78851711044 1.58025551926 1.38625897217 1.20921068317
          1.0510278632 0.912100022011 0.792207374496 0.690881124573 0.606121934471 0.536479510479
          0.480494587002 0.437491780891 0.406587149 0.386625660191 0.376607290373 0.376149349251
          0.385198739519 0.403972240181 0.432879009504 0.472136070251 0.522709605503 0.587562819996
          0.670156826763 0.773037938538 0.89938105629 1.05069756523 1.22860308174 1.43555019226
          1.67170973778 1.93410584419 2.21732130005 2.51668057053 2.82513448128 3.13623628647
          3.44256048943 3.73508953468 4.00557522949 4.24993893295 4.46606029266 4.65259023445
          3.91840756714 3.72292660995 3.53439882889 3.34419565918 3.1460480368 2.93823701813
          2.719627388 2.49167317421 2.25855160545 2.02516753609 1.79718532837 1.57974891815
          1.3767484343 1.18988604031 1.02180672619 0.873734349899 0.745380174751 0.635967511482
          0.544309910851 0.468444925537 0.40709068428 0.358840221329 0.322377692971 0.296444419389
          0.279862546587 0.271752778425 0.271561242161 0.279242725921 0.29485661037 0.318619248452
          0.351041267323 0.39303947423 0.4476830196 0.518241761885 0.607484942341 0.718714528656
          0.853879423828 1.0156647052 1.20765678635 1.42992380478 1.68080639652 1.95593898369
          2.25131677784 2.56112848183 2.87864453217 3.19571337891 3.5030345385 3.79178741486
          4.05611111267 4.29218436844 4.49838872589 3.82133804352 3.61797974579 3.41871520584
          3.21518185295 3.00299846542 2.78069692909 2.54851190445 2.30912744507 2.0681134565
          1.83080016907 1.60289323128 1.38987814896 1.19396851154 1.01619965416 0.858489819183
          0.721528109207 0.60439346508 0.505521641827 0.42381645668 0.357213039398 0.304107463956
          0.263078150563 0.232707285604 0.211478726521 0.198205525975 0.191905134168 0.192207241263
          0.198785662789 0.21175428731 0.231336349063 0.258144311113 0.293088333549 0.338897452941
          0.398713929353 0.4753580548 0.572227947788 0.691794459591 0.83779820713 1.01387827301
          1.22054567848 1.45725343086 1.72095015476 2.00823518188 2.31482108635 2.63398369476
          2.95701985619 3.27425814354 3.57661298386 3.85719203171 4.11067771957 4.33419553574
          3.73010884613 3.51760545212 3.30644444214 3.08941793655 2.86326439995 2.62738389877
          2.38313973038 2.13512641655 1.88917241379 1.65120136208 1.42659048378 1.2194073428
          1.03180196266 0.864298520775 0.717984507294 0.592383481846 0.48641662571 0.398281343594
          0.326197972488 0.268385487485 0.223322073054 0.189079532008 0.164078439775 0.147014772568
          0.136801661215 0.132351817374 0.133088783979 0.138639486575 0.149249550309 0.16519321476
          0.187286270704 0.216582247491 0.255169029617 0.305830555029 0.371431624098 0.455403191524
          0.560526780577 0.691179996166 0.851217085323 1.04158422337 1.26244507477 1.51243567158
          1.78941548897 2.08911802734 2.40550925911 2.73025199333 3.05305266266 3.36473352272
          3.65754974884 3.92540431396 4.16403072502 3.64487225677 3.42180965004 3.19789112244
          2.96719078178 2.72747404617 2.47923367149 2.22522311859 1.9712367849 1.72311140053
          1.48736515747 1.26805926121 1.06834312046 0.889915555916 0.733264307842 0.598393086739
          0.484014853268 0.388843574896 0.310860050974 0.248125207949 0.19863374279 0.16100542592
          0.132958073392 0.112793793406 0.0995514545536 0.0919904997253 0.0890086344862 0.0899506986189
          0.0945323615217 0.102967897592 0.11576723731 0.133766905107 0.158298595619 0.191067587981
          0.234199339938 0.290365969715 0.362937206616 0.455363903131 0.571719755335 0.716103951283
          0.890531397743 1.09464092991 1.32962552109 1.59435660839 1.88489631771 2.195056735
          2.51769512238 2.84260891678 3.15988217667 3.46131409195 3.74019260399 3.99150592857
          3.56515877838 3.33038653572 3.09330869232 2.84921077118 2.59673977112 2.33746545593
          2.07592728691 1.81858007133 1.57120347191 1.33939793991 1.12681225643 0.936002270927
          0.767522523575 0.621676992035 0.497656243629 0.393966306276 0.308874545383 0.240457211118
          0.186443099132 0.144767034106 0.113931029596 0.0914002003431 0.0757698559332 0.0658560910368
          0.0602173168516 0.05817557796 0.0591047616529 0.062792574234 0.0694258908415 0.0796178834629
          0.0941674216652 0.114442917657 0.142164655676 0.179045951271 0.227343217678 0.290221553988
          0.371475467834 0.4749205867 0.604695137587 0.763367869968 0.951453439293 1.17084072269
          1.42195728123 1.70150052696 2.00343457458 2.32093984734 2.64491550598 2.96465874855
          3.27173427971 3.5586596817 3.81996750305 3.49133799744 3.24399721046 2.99346961067
          2.73621788513 2.47194686104 2.20336821465 1.93677375557 1.67817452362 1.43355447487
          1.20724254013 1.00274447994 0.821458689346 0.663061242104 0.527501406803 0.413635942316
          0.319978409052 0.244368749723 0.184787877908 0.138719709682 0.104228412046 0.0793858017778
          0.0616162421203 0.0498753639746 0.0424590504408 0.0383593689299 0.0369171319818 0.0376497458744
          0.0405196635914 0.0457431928325 0.0538604704189 0.0655334821701 0.0821190989017 0.105344025002
          0.136808227453 0.178565281739 0.233327663994 0.304851738567 0.3969191256 0.513241662655
          0.656857536125 0.829943251019 1.03415883411 1.27055749214 1.53772872883 1.83023862324
          2.14066613533 2.46119159134 2.78100166481 3.0910983963 3.38364320793 3.65245824417
          3.42316156761 3.1623551384 2.89828147728 2.62861795799 2.35369261978 2.07820105751
          1.80844570587 1.55056497612 1.31004643257 1.09045743546 0.894672511826 0.723019569244
          0.574481242847 0.448883783894 0.344578290405 0.260127272611 0.193193911548 0.141609383626
          0.102608393402 0.0742954024458 0.0544113225293 0.0408340200782 0.0320919360495 0.0266258745527
          0.023778956337 0.0228023663855 0.023352878952 0.0255344164824 0.0295539685869 0.0359187252522
          0.0452517863655 0.0586978596687 0.0780089488363 0.104802843227 0.140844357162 0.188925614333
          0.252120558395 0.334148680844 0.438589028969 0.5684589888 0.727209165707 0.916938228607
          1.13877797546 1.3926071983 1.67430828117 1.97686231056 2.29203497597 2.60981996742
          2.92097505333 3.21723380638 3.49175919678 3.36037256035 3.08554616943 2.8081840593
          2.52687161789 2.24324089233 1.96275762222 1.69153487007 1.43588673195 1.20035893726
          0.988046084824 0.801142802467 0.638795971489 0.499975180111 0.383858612738 0.28860685216
          0.212481644225 0.15324212718 0.108534805074 0.0756205235338 0.0524612136412 0.0367207884836
          0.0265382471919 0.0200891977859 0.0162191988492 0.0142973907661 0.0136614019465 0.0141274517989
          0.0157821183443 0.0188097436285 0.0236816881752 0.0310299911833 0.0419183236313 0.0578938913608
          0.0806971054363 0.111880746469 0.154120268598 0.210348134789 0.283753414183 0.377784793305
          0.495541983442 0.640803161716 0.816689542522 1.02468931805 1.26510474667 1.53498589432
          1.82853172516 2.137189744 2.45157810524 2.76224851013 3.06048641266 3.33903142723
          3.30334979874 3.0143173333 2.72406118889 2.43229343704 2.14159321655 1.85759151749
          1.5864966156 1.33400044479 1.10402088074 0.899175691338 0.720624776421 0.56720726263
          0.43748723978 0.330330569477 0.243372653384 0.174764422302 0.122290219727 0.0834579118109
          0.0557135728431 0.0368056059623 0.0245075622034 0.0169234672594 0.0122783141279 0.00966075933933
          0.00842078248978 0.00802772568226 0.00838552751541 0.00960519051552 0.0118550451136 0.0155315689635
          0.0212232450652 0.0299906574202 0.0431816333103 0.0625347804642 0.0896443296862 0.126901704803
          0.177080734901 0.243142046638 0.328213779902 0.435560013905 0.568695487461 0.731641726894
          0.926231646347 1.15345099045 1.41115373817 1.69471712635 1.99605141541 2.30598609764
          2.61490924454 2.9139243277 3.19511474701 3.25280746071 2.94957647377 2.64696636322
          2.34603619827 2.04966185463 1.763237332 1.49315424088 1.24442233677 1.02020411945
          0.822673760872 0.652125046215 0.50700792635 0.385576550055 0.286412856259 0.206935795975
          0.144989712677 0.0984649230909 0.064710659523 0.041201890471 0.025768835578 0.0162607526875
          0.0106462022376 0.00736039302826 0.00565360859871 0.00487745870113 0.00467401299953 0.00496150192738
          0.00584701283932 0.00752468232155 0.0102765184832 0.0147081511831 0.021680822854 0.0325645047045
          0.0489919677019 0.0726724066305 0.105684440246 0.150583986478 0.21043334188 0.287900841727
          0.386193723421 0.508711522141 0.65963477108 0.841640229397 1.05608241848 1.30158861485
          1.57433937408 1.86755672752 2.17221288147 2.47848729164 2.77717483658 3.06034250397
          3.20934144836 2.89240360023 2.57826846176 2.26916767975 1.9682442807 1.68010668213
          1.41167730385 1.16665587006 0.948226093712 0.757786536598 0.594668784256 0.456978933334
          0.342960207806 0.250707090158 0.177654903817 0.121585381126 0.0801744865274 0.050834560554
          0.030896158278 0.0182555488992 0.010864993782 0.00668119687557 0.00443131786108 0.00334784946442
          0.00288887637138 0.0027975998497 0.00302436140537 0.00363982778549 0.00485550082207 0.00695205687523
          0.0104011302423 0.0160032761431 0.0250210070419 0.0390318627882 0.0597882550669 0.089329847579
          0.129813451719 0.184281651421 0.255285913777 0.345855479722 0.459067060242 0.598870056019
          0.76908675272 0.97144076252 1.20483203369 1.46643039516 1.75070806877 2.04949748352
          2.35226499901 2.64971355408 2.93397098221 3.17392402245 2.84398388931 2.51930854927
          2.20272038788 1.89751792961 1.60830908005 1.34163570293 1.10023699139 0.887486070709
          0.703483031445 0.546959267445 0.415901521788 0.308197270899 0.221874011331 0.154369924078
          0.103361173482 0.066383759172 0.0407493476343 0.0237755698204 0.0133198895073 0.00746680855036
          0.00436996502638 0.00283766314507 0.00213928370953 0.001858260746 0.0018178306818 0.00196844670773
          0.00238548829556 0.00324490489483 0.00483330944061 0.00755907837868 0.0121369543886 0.0196924229765
          0.0317575560236 0.0500497861195 0.0766658744049 0.11360819366 0.16354900229 0.229122943602
          0.312933714781 0.418099172387 0.548119325533 0.707307668533 0.898120168762 1.11997119598
          1.37032807571 1.64511274673 1.9370336134 2.23557905022 2.53124654762 2.81570303299
          3.14780724709 2.8054258403 2.47092510536 2.14732637939 1.83797646996 1.54780011307
          1.28270869545 1.04484912216 0.837201731415 0.65873970705 0.508002573853 0.382660470352
          0.280176835327 0.198953580861 0.136159479461 0.0894667349148 0.0561643653083 0.0334943011522
          0.0188572816539 0.0100753137851 0.00536719132185 0.00304712859154 0.00197244115353 0.00151893777847
          0.00134514145851 0.00131997178078 0.00141767443657 0.00169976845264 0.00231246925354 0.00350278453827
          0.00567544616222 0.00945517913342 0.015875429039 0.0264293325233 0.0427548764277 0.0669669103479
          0.100999566946 0.147155799918 0.208090230918 0.28628060894 0.384419188185 0.50612180769
          0.655380802784 0.835358599815 1.046182323 1.28547200916 1.55042859348 1.83452860977
          2.12804348747 2.42119210381 2.70531276527 3.13161717216 2.77742692253 2.43370796638
          2.10311757538 1.78965359573 1.4986426339 1.23462495037 1.00006253666 0.796570832577
          0.622936452408 0.477022845526 0.35627289093 0.258284624519 0.181196624651 0.122296026239
          0.0790455742979 0.0486578084993 0.0282926793313 0.0154102279401 0.00790002379656 0.00406423044205
          0.00227447577953 0.00150058125973 0.00119231471062 0.00107996743202 0.00106602698326 0.00113832045555
          0.00133138323784 0.00176692331314 0.00266875397205 0.00440710878372 0.00757959030628 0.0131389031076
          0.0224967404985 0.0372791867065 0.0596057490253 0.0912591700315 0.134273272262 0.191390769863
          0.264727292566 0.357075867023 0.471659112368 0.61234006424 0.782405911407 0.982652769012
          1.211273717 1.46613190804 1.74168156509 2.02949906319 2.31925826569 2.60240133743
          3.12540192192 2.76022846237 2.40742433723 2.07009399956 1.75249053993 1.46036211464
          1.19721696171 0.965274752235 0.765103579884 0.595232963676 0.453371798258 0.336316864252
          0.241792542915 0.168007933073 0.112074197741 0.0715021241403 0.0433031827784 0.0246154276991
          0.0130556985688 0.00649269449472 0.00325304490805 0.00183402607441 0.00124383836746 0.0010198725605
          0.000937573318481 0.000929880313873 0.000984523162842 0.00112903391838 0.00145651911736 0.00215206539154
          0.00358631561279 0.00631152150154 0.0112209716988 0.0196330843616 0.0331647067738 0.0539960130501
          0.0837873225451 0.124316318448 0.178186042013 0.247465261807 0.335088408728 0.443770319881
          0.577027324753 0.738035513878 0.928570121498 1.14694862896 1.39190343918 1.65844142509
          1.93962796471 2.22538888092 2.50707745461 3.12959070633 2.75388120804 2.39216164711
          2.04817089813 1.72636533211 1.43271381035 1.17016865364 0.939868978195 0.742098454742
          0.575110977764 0.436272889729 0.322102693458 0.230157862821 0.158748727131 0.105103414183
          0.0663844875479 0.0397222990322 0.02221017133 0.0115495564055 0.00563237537384 0.00279423687935
          0.00159137812614 0.00110571701527 0.000926721420288 0.000860313911438 0.000855186681747 0.000901600999832
          0.00102060321808 0.00128616661072 0.00185099616051 0.00306755825996 0.00549661438942 0.00996121163845
          0.017640784874 0.0302097225738 0.0498922911 0.0781877712822 0.116838862143 0.168123782778
          0.234095883074 0.317840521383 0.421731082191 0.548561224422 0.701601308441 0.883213355904
          1.09207690029 1.32741208599 1.5850903899 1.85885278641 2.13967964455 2.41905342712
          3.14489471611 2.75855364609 2.3880053495 2.03734367325 1.71141422653 1.41574093018
          1.15299579746 0.923523537674 0.727123405056 0.562032703686 0.42536017108 0.313237541451
          0.223067440333 0.153258620286 0.101009846697 0.0633525265074 0.037628863883 0.0208709822154
          0.0107255280352 0.0051740547967 0.00257084173918 0.00147448958874 0.00103738433838 0.000879114656448
          0.000821347961426 0.000817839241028 0.000860060653687 0.000965915651321 0.00119825461388 0.00169432311058
          0.00277578093052 0.00499639773846 0.0091816911459 0.0163744615602 0.0282846014118 0.0471086825275
          0.0743374532747 0.111595408263 0.160861111732 0.224345803132 0.304867573371 0.4048731215
          0.526342179375 0.672482303543 0.846208753166 1.04654381771 1.27256008217 1.52146585732
          1.78763794579 2.06275879066 2.33876790016 3.17174573105 2.77461574112 2.39521819618
          2.03788836372 1.70750538788 1.40924481735 1.14540123119 0.915936823425 0.719793211155
          0.555651860752 0.420107894897 0.309179094353 0.220115089874 0.151232274511 0.0995929582167
          0.0623370297194 0.0369727367568 0.0205232041478 0.0105107287765 0.00506146282434 0.00253411915302
          0.00144934860706 0.00102006402969 0.00086592757225 0.000810299186707 0.000807416610718 0.00084830039978
          0.000950604753494 0.00116876896858 0.00163420513153 0.00265726759434 0.00476630018234 0.00879886429071
          0.015751884656 0.027310295198 0.0455103133202 0.0720697177649 0.108387798638 0.156251505938
          0.217892664652 0.296008300543 0.392821536293 0.509947505636 0.650325298233 0.817134917717
          1.00996262459 1.2272948407 1.46767939873 1.7259853965 1.99485656082 2.26673431953
          3.2102419519 2.80230283279 2.41409720505 2.04999779274 1.71464244774 1.41310869972
          1.14711331989 0.916512037468 0.719834655514 0.55552149888 0.420240436716 0.309736001573
          0.221127676716 0.152472420402 0.100761779017 0.0633273164845 0.0377153628111 0.0210656099296
          0.0109126752257 0.00530126392126 0.00266932206392 0.0015158920002 0.0010533712101 0.000884739303589
          0.000824702072144 0.000820310916901 0.000861877593994 0.000964671430588 0.00118543066025 0.00165277914524
          0.00267210583687 0.0047546506691 0.00874247559547 0.015691647284 0.0271870050907 0.0451150458145
          0.0713127064562 0.107040682378 0.15396544899 0.214389329357 0.290854404125 0.38512728672
          0.498946059799 0.634829757195 0.795572424622 0.981690355797 1.19154288841 1.42365565216
          1.67414453056 1.93632053726 2.20296928276 3.26009733459 2.8418260836 2.44476618286
          2.07365590935 1.73281510292 1.42728370083 1.15817707882 0.925348767967 0.727228059978
          0.561776821928 0.425678593874 0.314813287506 0.225951507506 0.15682559495 0.1045009972
          0.0663319901943 0.0398757905984 0.0225916827059 0.0119386438131 0.00595517140865 0.00303027830601
          0.00170111034393 0.00115198300362 0.00094228729248 0.000867835512161 0.00085947177887 0.000902469415665
          0.00101253640175 0.00124741317749 0.00174480381012 0.00280882212162 0.00494143537045 0.00901553094387
          0.0161218388224 0.0278395466256 0.0459189638233 0.072011211381 0.107515092535 0.153905894189
          0.213723377581 0.289016467319 0.381406391335 0.492862575941 0.625423591385 0.78127447403
          0.961475696411 1.16496500664 1.38966182808 1.63236044525 1.88785436226 2.1486775605
          3.32118269997 2.8928825264 2.48690030731 2.10839936317 1.76192210541 1.45155396206
          1.17837114578 0.942342102852 0.741900888901 0.574415615587 0.436597685709 0.32444236424
          0.234633920751 0.164323702478 0.110795553355 0.0713953239703 0.043606703217 0.0252069809461
          0.0137050732541 0.00709817940235 0.00370393560886 0.0020615799427 0.00135119880676 0.00106160666466
          0.000954846220016 0.000935302724838 0.000979561796188 0.0011045824337 0.00136781575203 0.00192541721821
          0.00309785480976 0.00537110039234 0.00965093724251 0.0171232801986 0.0293227323174 0.0479346963215
          0.0742727908754 0.109756159778 0.156209843411 0.215709422612 0.290378301973 0.381615259409
          0.491525631847 0.62178207119 0.773735178833 0.949249200859 1.14730840298 1.36541973316
          1.60105221607 1.84963830776 2.10444958382 3.39335374825 2.95552199333 2.5409205365
          2.15484252251 1.80218269508 1.48625947639 1.20815362988 0.967849486771 0.763945436935
          0.593472085876 0.453148239069 0.338807418871 0.247245978355 0.175210314717 0.119777147136
          0.0786459130621 0.0491175351381 0.0291512187815 0.0164128723168 0.00888968326569 0.00482060204983
          0.00271266760349 0.00172918633461 0.0012955246067 0.00112390287399 0.00107849520683 0.00112291674614
          0.00127243098259 0.00158683508873 0.00223384625912 0.00356486819267 0.00609191949368 0.010738061862
          0.018786200242 0.0317682357526 0.0511549482393 0.0781018669844 0.114028463616 0.160937980056
          0.220603232923 0.295006246195 0.385727636328 0.494681815205 0.623480554466 0.773006233139
          0.944697562809 1.13800226723 1.35068994587 1.58009498116 1.82225967171 2.0707897966
          3.47655113625 3.0299377095 2.60703521355 2.21321685188 1.8537821003 1.53183627235
          1.24793848328 1.00223009819 0.793582866211 0.61920338232 0.475473817873 0.358216308856
          0.264146374488 0.189700686007 0.131687268958 0.0882637712121 0.0566448557234 0.0347245944691
          0.0203846212959 0.0115670134449 0.00657438138485 0.00380917037964 0.0024136606884 0.00174104141235
          0.00144893109322 0.00135461407661 0.00139143074989 0.00157421288013 0.00196226249218 0.00275010753632
          0.00430364282608 0.00719708111763 0.0124114000607 0.0212522241974 0.0352806731749 0.0558092833471
          0.0836618731546 0.120563198438 0.168383528805 0.228609625568 0.303141529374 0.39393719327
          0.502512996874 0.630435952663 0.778352965298 0.947230146866 1.13703963264 1.34525800026
          1.56940312302 1.80571049698 2.04857342133 3.57090961403 3.11617284256 2.68529887032
          2.28378463226 1.91710545715 1.58847063194 1.2980046096 1.04592926373 0.831585274353
          0.652063600025 0.503936019249 0.383087357116 0.285800032148 0.208200558262 0.147104849377
          0.100705988541 0.0665596790862 0.042343253715 0.0259923414183 0.0155413440824 0.00925250342369
          0.00560395511866 0.0035910637188 0.00254981113434 0.00205106896877 0.0018634665966 0.00188146950722
          0.00209887975693 0.00260069710255 0.00358850343704 0.00546891504765 0.00888228203297 0.0148500496888
          0.0247373281431 0.0400649266481 0.0620193684769 0.0911947964668 0.129489009366 0.178644333076
          0.239945168085 0.31522214447 0.406451467533 0.515225325089 0.642647845612 0.78966629509
          0.956838890877 1.14393656052 1.34872765015 1.56845587288 1.79961213501 2.03737535072
          3.67608196823 3.2143152887 2.77599522285 2.36695846085 1.99275522186 1.6566530751
          1.35872281845 1.09952443962 0.878354614067 0.692652153816 0.539228946028 0.413857461433
          0.312620104637 0.231216547022 0.166529820204 0.116659686818 0.0793764313841 0.0524777761626
          0.03369625947 0.0212412488055 0.0133088144636 0.00842579417706 0.00556681382179 0.00395975535393
          0.00313003683567 0.00277869987011 0.0027524209547 0.00301255145073 0.00366837908268 0.00496622858524
          0.00730760917664 0.0114055696821 0.018358611052 0.0295878480029 0.0464853463984 0.0699955711889
          0.100927183025 0.141007664361 0.191855227442 0.254774333611 0.331437236791 0.423658878002
          0.532932081718 0.660277666893 0.806941755829 0.973146174088 1.15838444931 1.36038328495
          1.57659491898 1.80357058075 2.03676610359 3.79219186401 3.32418664413 2.87925070999
          2.46320239105 2.08122393478 1.73705613228 1.43090662323 1.16376010506 0.934682015266
          0.741746298943 0.58220568306 0.451302425404 0.345127985511 0.25926717586 0.19055473906
          0.136708949828 0.0957775475526 0.0657123129988 0.0441684297991 0.029210383091 0.0192442171431
          0.0127839481258 0.00877268470287 0.00638860610008 0.00504699233532 0.00441201086044 0.00428081346035
          0.0045997045517 0.005474892416 0.00718516698837 0.0101426883698 0.0151120587683 0.0232788999629
          0.0360310373473 0.05472657341 0.0799929219723 0.112962468579 0.155270005107 0.208381624951
          0.273562972679 0.352130087576 0.445961263428 0.55595503418 0.683446595688 0.830113461227
          0.995990842285 1.1799941185 1.37988627247 1.59343155426 1.81703574615 2.04655374535
          3.91895276726 3.44574350327 2.99494711418 2.57214037071 2.18250306084 1.83014219322
          1.51551787125 1.239430037 1.00163372917 0.800342839317 0.633417192307 0.496060050373
          0.38391199204 0.292964200163 0.219632694273 0.16151716547 0.116528833528 0.0827677521706
          0.0579956575346 0.0401755189514 0.0277140051508 0.0192780848122 0.0137502250242 0.0103150045681
          0.00830107917309 0.00725783045292 0.00694030216694 0.00731446881294 0.00847543636322 0.0106858056068
          0.0143912406635 0.0204879015398 0.0301119437909 0.0445747404408 0.0651175481725 0.0922475594473
          0.127538776164 0.172641616292 0.228619231677 0.296568045135 0.377569527035 0.473390223751
          0.584663292007 0.712894385567 0.859676672897 1.02537869301 1.20858544804 1.40693039234
          1.61837714039 1.83937973389 2.06608427307 4.05627023811 3.5787211998 3.12281042252
          2.69376677094 2.29692312355 1.9364355275 1.6127695771 1.32724537521 1.07993548515